LAMMPS data file for MOL

8 atoms
7 bonds
12 angles
9 dihedrals
0 impropers

2 atom types
2 bond types
2 angle types
1 dihedral types

-1.164 1.164 xlo xhi
-0.968 0.968 ylo yhi
-0.999 0.999 zlo zhi

Masses

1 12.01
2 1.008

Pair Coeffs

1 0.10939999991572773 3.399669508450741
2 0.01570000002623629 2.649532787260222

Bond Coeffs

1 300.9 1.5375
2 330.6 1.0969

Angle Coeffs

1 46.34 109.80004705760963
2 39.4 107.5800458769885

Dihedral Coeffs

1 0.15 1 3

Atoms

1 0 1 -0.04941799997804887 0.765 0.0 0.0
2 0 1 -0.06374600023048682 -0.765 0.0 0.0
3 0 2 0.016950999983536656 1.164 -0.762 0.678
4 0 2 0.017402000021951126 1.164 0.968 0.321
5 0 2 0.017849999999999998 1.164 -0.207 -0.999
6 0 2 0.020670999983536654 -1.164 0.207 0.999
7 0 2 0.020586999994512217 -1.164 -0.968 -0.321
8 0 2 0.01970399998902444 -1.164 0.762 -0.678

Bonds

1 2 1 3
2 2 1 4
3 2 1 5
4 2 2 6
5 2 2 7
6 2 2 8
7 1 1 2

Angles

1 1 1 2 6
2 1 1 2 7
3 1 1 2 8
4 1 2 1 3
5 1 2 1 4
6 1 2 1 5
7 2 3 1 4
8 2 3 1 5
9 2 4 1 5
10 2 6 2 7
11 2 6 2 8
12 2 7 2 8

Dihedrals

1 1 3 1 2 6
2 1 3 1 2 7
3 1 3 1 2 8
4 1 4 1 2 6
5 1 4 1 2 7
6 1 4 1 2 8
7 1 5 1 2 6
8 1 5 1 2 7
9 1 5 1 2 8

